# vtk DataFile Version 3.0
output  a mlTrajectory
ASCII
DATASET POLYDATA
POINTS 20000 double
1.0200 2.0000 3.0000
1.0201 2.0000 3.0000
1.0202 2.0000 3.0000
1.0203 2.0000 3.0000
1.0204 2.0000 3.0000
1.0205 2.0000 3.0000
1.0206 2.0000 3.0000
1.0207 2.0000 3.0000
1.0208 2.0000 3.0000
1.0209 2.0000 3.0000
1.0210 2.0000 3.0000
1.0211 2.0000 3.0000
1.0212 2.0000 3.0000
1.0213 2.0000 3.0000
1.0214 2.0000 3.0000
1.0215 2.0000 3.0000
1.0216 2.0000 3.0000
1.0216 2.0000 3.0000
1.0217 2.0000 3.0000
1.0218 2.0000 3.0000
1.0219 2.0000 3.0000
1.0220 2.0000 3.0000
1.0221 2.0000 3.0000
1.0222 2.0000 3.0000
1.0223 2.0000 3.0000
1.0224 2.0000 3.0000
1.0225 2.0000 3.0000
1.0226 2.0000 3.0000
1.0227 2.0000 3.0000
1.0228 2.0000 3.0000
1.0229 2.0000 3.0000
1.0230 2.0000 3.0000
1.0231 2.0000 3.0000
1.0232 2.0000 3.0000
1.0233 2.0000 3.0000
1.0234 2.0000 3.0000
1.0235 2.0000 3.0000
1.0236 2.0000 3.0000
1.0237 2.0000 3.0000
1.0238 2.0000 3.0000
1.0239 2.0000 3.0000
1.0240 2.0000 3.0000
1.0241 2.0000 3.0000
1.0242 2.0000 3.0000
1.0243 2.0000 3.0000
1.0244 2.0000 3.0000
1.0245 2.0000 3.0000
1.0246 2.0000 3.0000
1.0247 2.0000 3.0000
1.0248 2.0000 3.0000
1.0248 2.0000 3.0000
1.0249 2.0000 3.0000
1.0250 2.0000 3.0000
1.0251 2.0000 3.0000
1.0252 2.0000 3.0000
1.0253 2.0000 3.0000
1.0254 2.0000 3.0000
1.0255 2.0000 3.0000
1.0256 2.0000 3.0000
1.0257 2.0000 3.0000
1.0258 2.0000 3.0000
1.0259 2.0000 3.0000
1.0260 2.0000 3.0000
1.0261 2.0000 3.0000
1.0262 2.0000 3.0000
1.0263 2.0000 3.0000
1.0264 2.0000 3.0000
1.0265 2.0000 3.0000
1.0266 2.0000 3.0000
1.0267 2.0000 3.0000
1.0268 2.0000 3.0000
1.0269 2.0000 3.0000
1.0270 2.0000 3.0000
1.0271 2.0000 3.0000
1.0272 2.0000 3.0000
1.0273 2.0000 3.0000
1.0274 2.0000 3.0000
1.0275 2.0000 3.0000
1.0276 2.0000 3.0000
1.0277 2.0000 3.0000
1.0278 2.0000 3.0000
1.0279 2.0000 3.0000
1.0280 2.0000 3.0000
1.0281 2.0000 3.0000
1.0281 2.0000 3.0000
1.0282 2.0000 3.0000
1.0283 2.0000 3.0000
1.0284 2.0000 3.0000
1.0285 2.0000 3.0000
1.0286 2.0000 3.0000
1.0287 2.0000 3.0000
1.0288 2.0000 3.0000
1.0289 2.0000 3.0000
1.0290 2.0000 3.0000
1.0291 2.0000 3.0000
1.0292 2.0000 3.0000
1.0293 2.0000 3.0000
1.0294 2.0000 3.0000
1.0295 2.0000 3.0000
1.0296 2.0000 3.0000
1.0297 2.0000 3.0000
1.0298 2.0000 3.0000
1.0299 2.0000 3.0000
1.0300 2.0000 3.0000
1.0301 2.0000 3.0000
1.0302 2.0000 3.0000
1.0303 2.0000 3.0000
1.0304 2.0000 3.0000
1.0305 2.0000 3.0000
1.0306 2.0000 3.0000
1.0307 2.0000 3.0000
1.0308 2.0000 3.0000
1.0309 2.0000 3.0000
1.0310 2.0000 3.0000
1.0311 2.0000 3.0000
1.0312 2.0000 3.0000
1.0313 2.0000 3.0000
1.0313 2.0000 3.0000
1.0314 2.0000 3.0000
1.0315 2.0000 3.0000
1.0316 2.0000 3.0000
1.0317 2.0000 3.0000
1.0318 2.0000 3.0000
1.0319 2.0000 3.0000
1.0320 2.0000 3.0000
1.0321 2.0000 3.0000
1.0322 2.0000 3.0000
1.0323 2.0000 3.0000
1.0324 2.0000 3.0000
1.0325 2.0000 3.0000
1.0326 2.0000 3.0000
1.0327 2.0000 3.0000
1.0328 2.0000 3.0000
1.0329 2.0000 3.0000
1.0330 2.0000 3.0000
1.0331 2.0000 3.0000
1.0332 2.0000 3.0000
1.0333 2.0000 3.0000
1.0334 2.0000 3.0000
1.0335 2.0000 3.0000
1.0336 2.0000 3.0000
1.0337 2.0000 3.0000
1.0338 2.0000 3.0000
1.0339 2.0000 3.0000
1.0340 2.0000 3.0000
1.0341 2.0000 3.0000
1.0342 2.0000 3.0000
1.0343 2.0000 3.0000
1.0344 2.0000 3.0000
1.0345 2.0000 3.0000
1.0346 2.0000 3.0000
1.0346 2.0000 3.0000
1.0347 2.0000 3.0000
1.0348 2.0000 3.0000
1.0349 2.0000 3.0000
1.0350 2.0000 3.0000
1.0351 2.0000 3.0000
1.0352 2.0000 3.0000
1.0353 2.0000 3.0000
1.0354 2.0000 3.0000
1.0355 2.0000 3.0000
1.0356 2.0000 3.0000
1.0357 2.0000 3.0000
1.0358 2.0000 3.0000
1.0359 2.0000 3.0000
1.0360 2.0000 3.0000
1.0361 2.0000 3.0000
1.0362 2.0000 3.0000
1.0363 2.0000 3.0000
1.0364 2.0000 3.0000
1.0365 2.0000 3.0000
1.0366 2.0000 3.0000
1.0367 2.0000 3.0000
1.0368 2.0000 3.0000
1.0369 2.0000 3.0000
1.0370 2.0000 3.0000
1.0371 2.0000 3.0000
1.0372 2.0000 3.0000
1.0373 2.0000 3.0000
1.0374 2.0000 3.0000
1.0375 2.0000 3.0000
1.0376 2.0000 3.0000
1.0377 2.0000 3.0000
1.0378 2.0000 3.0000
1.0378 2.0000 3.0000
1.0379 2.0000 3.0000
1.0380 2.0000 3.0000
1.0381 2.0000 3.0000
1.0382 2.0000 3.0000
1.0383 2.0000 3.0000
1.0384 2.0000 3.0000
1.0385 2.0000 3.0000
1.0386 2.0000 3.0000
1.0387 2.0000 3.0000
1.0388 2.0000 3.0000
1.0389 2.0000 3.0000
1.0390 2.0000 3.0000
1.0391 2.0000 3.0000
1.0392 2.0000 3.0000
1.0393 2.0000 3.0000
1.0394 2.0000 3.0000
1.0395 2.0000 3.0000
1.0396 2.0000 3.0000
1.0397 2.0000 3.0000
1.0398 2.0000 3.0000
1.0399 2.0000 3.0000
1.0400 2.0000 3.0000
1.0401 2.0000 3.0000
1.0402 2.0000 3.0000
1.0403 2.0000 3.0000
1.0404 2.0000 3.0000
1.0405 2.0000 3.0000
1.0406 2.0000 3.0000
1.0407 2.0000 3.0000
1.0408 2.0000 3.0000
1.0409 2.0000 3.0000
1.0410 2.0000 3.0000
1.0410 2.0000 3.0000
1.0411 2.0000 3.0000
1.0412 2.0000 3.0000
1.0413 2.0000 3.0000
1.0414 2.0000 3.0000
1.0415 2.0000 3.0000
1.0416 2.0000 3.0000
1.0417 2.0000 3.0000
1.0418 2.0000 3.0000
1.0419 2.0000 3.0000
1.0420 2.0000 3.0000
1.0421 2.0000 3.0000
1.0422 2.0000 3.0000
1.0423 2.0000 3.0000
1.0424 2.0000 3.0000
1.0425 2.0000 3.0000
1.0426 2.0000 3.0000
1.0427 2.0000 3.0000
1.0428 2.0000 3.0000
1.0429 2.0000 3.0000
1.0430 2.0000 3.0000
1.0431 2.0000 3.0000
1.0432 2.0000 3.0000
1.0433 2.0000 3.0000
1.0434 2.0000 3.0000
1.0435 2.0000 3.0000
1.0436 2.0000 3.0000
1.0437 2.0000 3.0000
1.0438 2.0000 3.0000
1.0439 2.0000 3.0000
1.0440 2.0000 3.0000
1.0441 2.0000 3.0000
1.0442 2.0000 3.0000
1.0443 2.0000 3.0000
1.0443 2.0000 3.0000
1.0444 2.0000 3.0000
1.0445 2.0000 3.0000
1.0446 2.0000 3.0000
1.0447 2.0000 3.0000
1.0448 2.0000 3.0000
1.0449 2.0000 3.0000
1.0450 2.0000 3.0000
1.0451 2.0000 3.0000
1.0452 2.0000 3.0000
1.0453 2.0000 3.0000
1.0454 2.0000 3.0000
1.0455 2.0000 3.0000
1.0456 2.0000 3.0000
1.0457 2.0000 3.0000
1.0458 2.0000 3.0000
1.0459 2.0000 3.0000
1.0460 2.0000 3.0000
1.0461 2.0000 3.0000
1.0462 2.0000 3.0000
1.0463 2.0000 3.0000
1.0464 2.0000 3.0000
1.0465 2.0000 3.0000
1.0466 2.0000 3.0000
1.0467 2.0000 3.0000
1.0468 2.0000 3.0000
1.0469 2.0000 3.0000
1.0470 2.0000 3.0000
1.0471 2.0000 3.0000
1.0472 2.0000 3.0000
1.0473 2.0000 3.0000
1.0474 2.0000 3.0000
1.0475 2.0000 3.0000
1.0475 2.0000 3.0000
1.0476 2.0000 3.0000
1.0477 2.0000 3.0000
1.0478 2.0000 3.0000
1.0479 2.0000 3.0000
1.0480 2.0000 3.0000
1.0481 2.0000 3.0000
1.0482 2.0000 3.0000
1.0483 2.0000 3.0000
1.0484 2.0000 3.0000
1.0485 2.0000 3.0000
1.0486 2.0000 3.0000
1.0487 2.0000 3.0000
1.0488 2.0000 3.0000
1.0489 2.0000 3.0000
1.0490 2.0000 3.0000
1.0491 2.0000 3.0000
1.0492 2.0000 3.0000
1.0493 2.0000 3.0000
1.0494 2.0000 3.0000
1.0495 2.0000 3.0000
1.0496 2.0000 3.0000
1.0497 2.0000 3.0000
1.0498 2.0000 3.0000
1.0499 2.0000 3.0000
1.0500 2.0000 3.0000
1.0501 2.0000 3.0000
1.0502 2.0000 3.0000
1.0503 2.0000 3.0000
1.0504 2.0000 3.0000
1.0505 2.0000 3.0000
1.0506 2.0000 3.0000
1.0507 2.0000 3.0000
1.0507 2.0000 3.0000
1.0508 2.0000 3.0000
1.0509 2.0000 3.0000
1.0510 2.0000 3.0000
1.0511 2.0000 3.0000
1.0512 2.0000 3.0000
1.0513 2.0000 3.0000
1.0514 2.0000 3.0000
1.0515 2.0000 3.0000
1.0516 2.0000 3.0000
1.0517 2.0000 3.0000
1.0518 2.0000 3.0000
1.0519 2.0000 3.0000
1.0520 2.0000 3.0000
1.0521 2.0000 3.0000
1.0522 2.0000 3.0000
1.0523 2.0000 3.0000
1.0524 2.0000 3.0000
1.0525 2.0000 3.0000
1.0526 2.0000 3.0000
1.0527 2.0000 3.0000
1.0528 2.0000 3.0000
1.0529 2.0000 3.0000
1.0530 2.0000 3.0000
1.0531 2.0000 3.0000
1.0532 2.0000 3.0000
1.0533 2.0000 3.0000
1.0534 2.0000 3.0000
1.0535 2.0000 3.0000
1.0536 2.0000 3.0000
1.0537 2.0000 3.0000
1.0538 2.0000 3.0000
1.0539 2.0000 3.0000
1.0540 2.0000 3.0000
1.0540 2.0000 3.0000
1.0541 2.0000 3.0000
1.0542 2.0000 3.0000
1.0543 2.0000 3.0000
1.0544 2.0000 3.0000
1.0545 2.0000 3.0000
1.0546 2.0000 3.0000
1.0547 2.0000 3.0000
1.0548 2.0000 3.0000
1.0549 2.0000 3.0000
1.0550 2.0000 3.0000
1.0551 2.0000 3.0000
1.0552 2.0000 3.0000
1.0553 2.0000 3.0000
1.0554 2.0000 3.0000
1.0555 2.0000 3.0000
1.0556 2.0000 3.0000
1.0557 2.0000 3.0000
1.0558 2.0000 3.0000
1.0559 2.0000 3.0000
1.0560 2.0000 3.0000
1.0561 2.0000 3.0000
1.0562 2.0000 3.0000
1.0563 2.0000 3.0000
1.0564 2.0000 3.0000
1.0565 2.0000 3.0000
1.0566 2.0000 3.0000
1.0567 2.0000 3.0000
1.0568 2.0000 3.0000
1.0569 2.0000 3.0000
1.0570 2.0000 3.0000
1.0571 2.0000 3.0000
1.0572 2.0000 3.0000
1.0572 2.0000 3.0000
1.0573 2.0000 3.0000
1.0574 2.0000 3.0000
1.0575 2.0000 3.0000
1.0576 2.0000 3.0000
1.0577 2.0000 3.0000
1.0578 2.0000 3.0000
1.0579 2.0000 3.0000
1.0580 2.0000 3.0000
1.0581 2.0000 3.0000
1.0582 2.0000 3.0000
1.0583 2.0000 3.0000
1.0584 2.0000 3.0000
1.0585 2.0000 3.0000
1.0586 2.0000 3.0000
1.0587 2.0000 3.0000
1.0588 2.0000 3.0000
1.0589 2.0000 3.0000
1.0590 2.0000 3.0000
1.0591 2.0000 3.0000
1.0592 2.0000 3.0000
1.0593 2.0000 3.0000
1.0594 2.0000 3.0000
1.0595 2.0000 3.0000
1.0596 2.0000 3.0000
1.0597 2.0000 3.0000
1.0598 2.0000 3.0000
1.0599 2.0000 3.0000
1.0600 2.0000 3.0000
1.0601 2.0000 3.0000
1.0602 2.0000 3.0000
1.0603 2.0000 3.0000
1.0604 2.0000 3.0000
1.0604 2.0000 3.0000
1.0605 2.0000 3.0000
1.0606 2.0000 3.0000
1.0607 2.0000 3.0000
1.0608 2.0000 3.0000
1.0609 2.0000 3.0000
1.0610 2.0000 3.0000
1.0611 2.0000 3.0000
1.0612 2.0000 3.0000
1.0613 2.0000 3.0000
1.0614 2.0000 3.0000
1.0615 2.0000 3.0000
1.0616 2.0000 3.0000
1.0617 2.0000 3.0000
1.0618 2.0000 3.0000
1.0619 2.0000 3.0000
1.0620 2.0000 3.0000
1.0621 2.0000 3.0000
1.0622 2.0000 3.0000
1.0623 2.0000 3.0000
1.0624 2.0000 3.0000
1.0625 2.0000 3.0000
1.0626 2.0000 3.0000
1.0627 2.0000 3.0000
1.0628 2.0000 3.0000
1.0629 2.0000 3.0000
1.0630 2.0000 3.0000
1.0631 2.0000 3.0000
1.0632 2.0000 3.0000
1.0633 2.0000 3.0000
1.0634 2.0000 3.0000
1.0635 2.0000 3.0000
1.0636 2.0000 3.0000
1.0637 2.0000 3.0000
1.0637 2.0000 3.0000
1.0638 2.0000 3.0000
1.0639 2.0000 3.0000
1.0640 2.0000 3.0000
1.0641 2.0000 3.0000
1.0642 2.0000 3.0000
1.0643 2.0000 3.0000
1.0644 2.0000 3.0000
1.0645 2.0000 3.0000
1.0646 2.0000 3.0000
1.0647 2.0000 3.0000
1.0648 2.0000 3.0000
1.0649 2.0000 3.0000
1.0650 2.0000 3.0000
1.0651 2.0000 3.0000
1.0652 2.0000 3.0000
1.0653 2.0000 3.0000
1.0654 2.0000 3.0000
1.0655 2.0000 3.0000
1.0656 2.0000 3.0000
[...]
POINT_DATA 20000
VECTORS tagents double
0.0200 0.0000 0.0000
0.0200 -0.0000 -0.0000
0.0200 -0.0000 -0.0000
0.0200 -0.0000 -0.0000
0.0200 0.0000 0.0000
0.0200 -0.0000 -0.0000
0.0200 -0.0000 -0.0000
0.0200 0.0000 0.0000
0.0200 -0.0000 -0.0000
0.0200 0.0000 0.0000
0.0200 -0.0000 -0.0000
0.0200 -0.0000 -0.0000
0.0200 -0.0000 -0.0000
0.0200 -0.0000 -0.0000
0.0200 0.0000 0.0000
0.0200 0.0000 0.0000
0.0200 -0.0000 -0.0000
0.0200 -0.0000 -0.0000
0.0200 -0.0000 -0.0000
0.0200 -0.0000 -0.0000
0.0200 0.0000 0.0000
0.0200 0.0000 0.0000
0.0200 -0.0000 -0.0000
0.0200 0.0000 0.0000
0.0200 -0.0000 -0.0000
0.0200 0.0000 0.0000
0.0200 -0.0000 -0.0000
0.0200 0.0000 0.0000
0.0200 0.0000 0.0000
0.0200 0.0000 0.0000
0.0200 0.0000 0.0000
0.0200 0.0000 0.0000
0.0200 0.0000 0.0000
0.0200 0.0000 0.0000
0.0200 -0.0000 -0.0000
0.0200 -0.0000 -0.0000
0.0200 -0.0000 -0.0000
0.0200 -0.0000 -0.0000
0.0200 0.0000 0.0000
0.0200 0.0000 0.0000
0.0200 0.0000 0.0000
0.0200 0.0000 0.0000
0.0200 0.0000 0.0000
0.0200 -0.0000 -0.0000
0.0200 0.0000 0.0000
0.0200 -0.0000 -0.0000
0.0200 0.0000 0.0000
0.0200 0.0000 0.0000
0.0200 0.0000 0.0000
0.0200 0.0000 0.0000
0.0200 0.0000 0.0000
0.0200 -0.0000 -0.0000
0.0200 0.0000 0.0000
0.0200 -0.0000 -0.0000
0.0200 0.0000 0.0000
0.0200 0.0000 0.0000
0.0200 0.0000 0.0000
0.0200 0.0000 0.0000
0.0200 0.0000 0.0000
0.0200 -0.0000 -0.0000
0.0200 -0.0000 -0.0000
0.0200 -0.0000 -0.0000
0.0200 0.0000 0.0000
0.0200 0.0000 0.0000
0.0200 -0.0000 -0.0000
0.0200 0.0000 0.0000
0.0200 0.0000 0.0000
0.0200 0.0000 0.0000
0.0200 -0.0000 -0.0000
0.0200 0.0000 0.0000
0.0200 0.0000 0.0000
0.0200 0.0000 0.0000
0.0200 -0.0000 -0.0000
0.0200 -0.0000 -0.0000
0.0200 0.0000 0.0000
0.0200 -0.0000 -0.0000
0.0200 -0.0000 -0.0000
0.0200 0.0000 0.0000
0.0200 0.0000 0.0000
0.0200 -0.0000 -0.0000
0.0200 0.0000 0.0000
0.0200 0.0000 0.0000
0.0200 0.0000 0.0000
0.0200 0.0000 0.0000
0.0200 -0.0000 -0.0000
0.0200 0.0000 0.0000
0.0200 -0.0000 -0.0000
0.0200 0.0000 0.0000
0.0200 -0.0000 -0.0000
0.0200 0.0000 0.0000
0.0200 0.0000 0.0000
0.0200 0.0000 0.0000
0.0200 -0.0000 -0.0000
0.0200 -0.0000 -0.0000
0.0200 0.0000 0.0000
0.0200 -0.0000 -0.0000
0.0200 0.0000 0.0000
0.0200 0.0000 0.0000
0.0200 0.0000 0.0000
0.0200 0.0000 0.0000
0.0200 -0.0000 -0.0000
0.0200 0.0000 0.0000
0.0200 -0.0000 -0.0000
0.0200 0.0000 0.0000
0.0200 0.0000 0.0000
0.0200 0.0000 0.0000
0.0200 -0.0000 -0.0000
0.0200 -0.0000 -0.0000
0.0200 0.0000 0.0000
0.0200 0.0000 0.0000
0.0200 -0.0000 -0.0000
0.0200 -0.0000 -0.0000
0.0200 0.0000 0.0000
0.0200 0.0000 0.0000
0.0200 0.0000 0.0000
0.0200 0.0000 0.0000
0.0200 0.0000 0.0000
0.0200 -0.0000 -0.0000
0.0200 0.0000 0.0000
0.0200 0.0000 0.0000
0.0200 -0.0000 -0.0000
0.0200 0.0000 0.0000
0.0200 -0.0000 -0.0000
0.0200 0.0000 0.0000
0.0200 0.0000 0.0000
0.0200 0.0000 0.0000
0.0200 0.0000 0.0000
0.0200 -0.0000 -0.0000
0.0200 -0.0000 -0.0000
0.0200 0.0000 0.0000
0.0200 0.0000 0.0000
0.0200 -0.0000 -0.0000
0.0200 0.0000 0.0000
0.0200 -0.0000 -0.0000
0.0200 0.0000 0.0000
0.0200 0.0000 0.0000
0.0200 -0.0000 -0.0000
0.0200 -0.0000 -0.0000
0.0200 -0.0000 -0.0000
0.0200 0.0000 0.0000
0.0200 0.0000 0.0000
0.0200 -0.0000 -0.0000
0.0200 -0.0000 -0.0000
0.0200 -0.0000 -0.0000
0.0200 -0.0000 -0.0000
0.0200 0.0000 0.0000
0.0200 0.0000 0.0000
0.0200 -0.0000 -0.0000
0.0200 0.0000 0.0000
0.0200 -0.0000 -0.0000
0.0200 -0.0000 -0.0000
0.0200 0.0000 0.0000
0.0200 -0.0000 -0.0000
0.0200 0.0000 0.0000
0.0200 -0.0000 -0.0000
0.0200 -0.0000 -0.0000
0.0200 0.0000 0.0000
0.0200 -0.0000 -0.0000
0.0200 -0.0000 -0.0000
0.0200 -0.0000 -0.0000
0.0200 -0.0000 -0.0000
0.0200 0.0000 0.0000
0.0200 0.0000 0.0000
0.0200 0.0000 0.0000
0.0200 0.0000 0.0000
0.0200 0.0000 0.0000
0.0200 0.0000 0.0000
0.0200 0.0000 0.0000
0.0200 0.0000 0.0000
0.0200 0.0000 0.0000
0.0200 -0.0000 -0.0000
0.0200 0.0000 0.0000
0.0200 0.0000 0.0000
0.0200 -0.0000 -0.0000
0.0200 -0.0000 -0.0000
0.0200 -0.0000 -0.0000
0.0200 -0.0000 -0.0000
0.0200 0.0000 0.0000
0.0200 0.0000 0.0000
0.0200 -0.0000 -0.0000
0.0200 0.0000 0.0000
0.0200 -0.0000 -0.0000
0.0200 0.0000 0.0000
0.0200 0.0000 0.0000
0.0200 0.0000 0.0000
0.0200 0.0000 0.0000
0.0200 -0.0000 -0.0000
0.0200 -0.0000 -0.0000
0.0200 0.0000 0.0000
0.0200 -0.0000 -0.0000
0.0200 -0.0000 -0.0000
0.0200 -0.0000 -0.0000
0.0200 -0.0000 -0.0000
0.0200 0.0000 0.0000
0.0200 0.0000 0.0000
0.0200 0.0000 0.0000
0.0200 0.0000 0.0000
0.0200 -0.0000 -0.0000
0.0200 0.0000 0.0000
0.0200 0.0000 0.0000
0.0200 -0.0000 -0.0000
0.0200 0.0000 0.0000
0.0200 -0.0000 -0.0000
0.0200 -0.0000 -0.0000
0.0200 0.0000 0.0000
0.0200 0.0000 0.0000
0.0200 -0.0000 -0.0000
0.0200 -0.0000 -0.0000
0.0200 -0.0000 -0.0000
0.0200 -0.0000 -0.0000
0.0200 -0.0000 -0.0000
0.0200 0.0000 0.0000
0.0200 -0.0000 -0.0000
0.0200 -0.0000 -0.0000
0.0200 0.0000 0.0000
0.0200 0.0000 0.0000
0.0200 -0.0000 -0.0000
0.0200 0.0000 0.0000
0.0200 -0.0000 -0.0000
0.0200 0.0000 0.0000
0.0200 0.0000 0.0000
0.0200 0.0000 0.0000
0.0200 -0.0000 -0.0000
0.0200 -0.0000 -0.0000
0.0200 0.0000 0.0000
0.0200 -0.0000 -0.0000
0.0200 -0.0000 -0.0000
0.0200 0.0000 0.0000
0.0200 -0.0000 -0.0000
0.0200 -0.0000 -0.0000
0.0200 0.0000 0.0000
0.0200 0.0000 0.0000
0.0200 0.0000 0.0000
0.0200 0.0000 0.0000
0.0200 -0.0000 -0.0000
0.0200 0.0000 0.0000
0.0200 -0.0000 -0.0000
0.0200 -0.0000 -0.0000
0.0200 0.0000 0.0000
0.0200 0.0000 0.0000
0.0200 -0.0000 -0.0000
0.0200 0.0000 0.0000
0.0200 0.0000 0.0000
0.0200 0.0000 0.0000
0.0200 -0.0000 -0.0000
0.0200 -0.0000 -0.0000
0.0200 0.0000 0.0000
0.0200 -0.0000 -0.0000
0.0200 0.0000 0.0000
0.0200 -0.0000 -0.0000
0.0200 0.0000 0.0000
0.0200 0.0000 0.0000
0.0200 0.0000 0.0000
0.0200 0.0000 0.0000
0.0200 -0.0000 -0.0000
0.0200 -0.0000 -0.0000
0.0200 -0.0000 -0.0000
0.0200 0.0000 0.0000
0.0200 0.0000 0.0000
0.0200 -0.0000 -0.0000
0.0200 0.0000 0.0000
0.0200 -0.0000 -0.0000
0.0200 0.0000 0.0000
0.0200 0.0000 0.0000
0.0200 -0.0000 -0.0000
0.0200 -0.0000 -0.0000
0.0200 -0.0000 -0.0000
0.0200 -0.0000 -0.0000
0.0200 0.0000 0.0000
0.0200 0.0000 0.0000
0.0200 0.0000 0.0000
0.0200 0.0000 0.0000
0.0200 -0.0000 -0.0000
0.0200 0.0000 0.0000
0.0200 0.0000 0.0000
0.0200 0.0000 0.0000
0.0200 0.0000 0.0000
0.0200 -0.0000 -0.0000
0.0200 -0.0000 -0.0000
0.0200 0.0000 0.0000
0.0200 0.0000 0.0000
0.0200 0.0000 0.0000
0.0200 -0.0000 -0.0000
0.0200 0.0000 0.0000
0.0200 0.0000 0.0000
0.0200 0.0000 0.0000
0.0200 -0.0000 -0.0000
0.0200 -0.0000 -0.0000
0.0200 -0.0000 -0.0000
0.0200 0.0000 0.0000
0.0200 0.0000 0.0000
0.0200 0.0000 0.0000
0.0200 0.0000 0.0000
0.0200 -0.0000 -0.0000
0.0200 0.0000 0.0000
0.0200 0.0000 0.0000
0.0200 0.0000 0.0000
0.0200 0.0000 0.0000
0.0200 -0.0000 -0.0000
0.0200 0.0000 0.0000
0.0200 0.0000 0.0000
0.0200 0.0000 0.0000
0.0200 0.0000 0.0000
0.0200 -0.0000 -0.0000
0.0200 -0.0000 -0.0000
0.0200 0.0000 0.0000
0.0200 0.0000 0.0000
0.0200 0.0000 0.0000
0.0200 0.0000 0.0000
0.0200 -0.0000 -0.0000
0.0200 0.0000 0.0000
0.0200 0.0000 0.0000
0.0200 0.0000 0.0000
0.0200 0.0000 0.0000
0.0200 -0.0000 -0.0000
0.0200 0.0000 0.0000
0.0200 0.0000 0.0000
0.0200 0.0000 0.0000
0.0200 0.0000 0.0000
0.0200 -0.0000 -0.0000
0.0200 -0.0000 -0.0000
0.0200 0.0000 0.0000
0.0200 0.0000 0.0000
0.0200 -0.0000 -0.0000
0.0200 0.0000 0.0000
0.0200 -0.0000 -0.0000
0.0200 -0.0000 -0.0000
0.0200 0.0000 0.0000
0.0200 0.0000 0.0000
0.0200 0.0000 0.0000
0.0200 -0.0000 -0.0000
0.0200 0.0000 0.0000
0.0200 0.0000 0.0000
0.0200 0.0000 0.0000
0.0200 0.0000 0.0000
0.0200 -0.0000 -0.0000
0.0200 -0.0000 -0.0000
0.0200 -0.0000 -0.0000
0.0200 0.0000 0.0000
0.0200 0.0000 0.0000
0.0200 -0.0000 -0.0000
0.0200 -0.0000 -0.0000
0.0200 -0.0000 -0.0000
0.0200 0.0000 0.0000
0.0200 0.0000 0.0000
0.0200 0.0000 0.0000
0.0200 -0.0000 -0.0000
0.0200 -0.0000 -0.0000
0.0200 0.0000 0.0000
0.0200 0.0000 0.0000
0.0200 -0.0000 -0.0000
0.0200 -0.0000 -0.0000
0.0200 -0.0000 -0.0000
0.0200 0.0000 0.0000
0.0200 0.0000 0.0000
0.0200 0.0000 0.0000
0.0200 0.0000 0.0000
0.0200 -0.0000 -0.0000
0.0200 -0.0000 -0.0000
0.0200 0.0000 0.0000
0.0200 0.0000 0.0000
0.0200 -0.0000 -0.0000
0.0200 -0.0000 -0.0000
0.0200 -0.0000 -0.0000
0.0200 -0.0000 -0.0000
0.0200 0.0000 0.0000
0.0200 0.0000 0.0000
0.0200 0.0000 0.0000
0.0200 -0.0000 -0.0000
0.0200 0.0000 0.0000
0.0200 0.0000 0.0000
0.0200 0.0000 0.0000
0.0200 -0.0000 -0.0000
0.0200 -0.0000 -0.0000
0.0200 -0.0000 -0.0000
0.0200 0.0000 0.0000
0.0200 0.0000 0.0000
0.0200 -0.0000 -0.0000
0.0200 -0.0000 -0.0000
0.0200 -0.0000 -0.0000
0.0200 0.0000 0.0000
0.0200 0.0000 0.0000
0.0200 -0.0000 -0.0000
0.0200 0.0000 0.0000
0.0200 -0.0000 -0.0000
0.0200 0.0000 0.0000
0.0200 0.0000 0.0000
0.0200 0.0000 0.0000
0.0200 -0.0000 -0.0000
0.0200 -0.0000 -0.0000
0.0200 -0.0000 -0.0000
0.0200 -0.0000 -0.0000
0.0200 0.0000 0.0000
0.0200 0.0000 0.0000
0.0200 -0.0000 -0.0000
0.0200 -0.0000 -0.0000
0.0200 0.0000 0.0000
0.0200 0.0000 0.0000
0.0200 0.0000 0.0000
0.0200 0.0000 0.0000
0.0200 -0.0000 -0.0000
0.0200 0.0000 0.0000
0.0200 0.0000 0.0000
0.0200 0.0000 0.0000
0.0200 -0.0000 -0.0000
0.0200 -0.0000 -0.0000
0.0200 0.0000 0.0000
0.0200 0.0000 0.0000
0.0200 0.0000 0.0000
0.0200 -0.0000 -0.0000
0.0200 -0.0000 -0.0000
0.0200 -0.0000 -0.0000
0.0200 0.0000 0.0000
0.0200 0.0000 0.0000
0.0200 -0.0000 -0.0000
0.0200 0.0000 0.0000
0.0200 0.0000 0.0000
0.0200 -0.0000 -0.0000
0.0200 -0.0000 -0.0000
0.0200 0.0000 0.0000
0.0200 -0.0000 -0.0000
0.0200 -0.0000 -0.0000
0.0200 0.0000 0.0000
0.0200 0.0000 0.0000
0.0200 -0.0000 -0.0000
0.0200 -0.0000 -0.0000
0.0200 0.0000 0.0000
0.0200 0.0000 0.0000
0.0200 -0.0000 -0.0000
0.0200 -0.0000 -0.0000
0.0200 0.0000 0.0000
0.0200 0.0000 0.0000
0.0200 0.0000 0.0000
0.0200 -0.0000 -0.0000
0.0200 0.0000 0.0000
0.0200 -0.0000 -0.0000
0.0200 0.0000 0.0000
0.0200 -0.0000 -0.0000
0.0200 0.0000 0.0000
0.0200 0.0000 0.0000
0.0200 -0.0000 -0.0000
0.0200 -0.0000 -0.0000
0.0200 -0.0000 -0.0000
0.0200 -0.0000 -0.0000
0.0200 -0.0000 -0.0000
0.0200 0.0000 0.0000
0.0200 0.0000 0.0000
0.0200 -0.0000 -0.0000
0.0200 0.0000 0.0000
0.0200 -0.0000 -0.0000
0.0200 0.0000 0.0000
0.0200 0.0000 0.0000
0.0200 0.0000 0.0000
0.0200 -0.0000 -0.0000
0.0200 -0.0000 -0.0000
0.0200 0.0000 0.0000
0.0200 0.0000 0.0000
0.0200 -0.0000 -0.0000
0.0200 0.0000 0.0000
0.0200 0.0000 0.0000
0.0200 -0.0000 -0.0000
0.0200 0.0000 0.0000
0.0200 -0.0000 -0.0000
0.0200 0.0000 0.0000
0.0200 -0.0000 -0.0000
0.0200 -0.0000 -0.0000
0.0200 0.0000 0.0000
0.0200 -0.0000 -0.0000
0.0200 0.0000 0.0000
0.0200 0.0000 0.0000
0.0200 -0.0000 -0.0000
0.0200 -0.0000 -0.0000
0.0200 0.0000 0.0000
0.0200 0.0000 0.0000
0.0200 0.0000 0.0000
0.0200 -0.0000 -0.0000
0.0200 0.0000 0.0000
0.0200 -0.0000 -0.0000
0.0200 -0.0000 -0.0000
0.0200 -0.0000 -0.0000
0.0200 0.0000 0.0000
0.0200 -0.0000 -0.0000
0.0200 0.0000 0.0000
0.0200 -0.0000 -0.0000
0.0200 -0.0000 -0.0000
0.0200 -0.0000 -0.0000
0.0200 0.0000 0.0000
0.0200 0.0000 0.0000
0.0200 0.0000 0.0000
0.0200 -0.0000 -0.0000
0.0200 0.0000 0.0000
0.0200 0.0000 0.0000
0.0200 0.0000 0.0000
0.0200 -0.0000 -0.0000
0.0200 0.0000 0.0000
0.0200 -0.0000 -0.0000
0.0200 -0.0000 -0.0000
0.0200 0.0000 0.0000
0.0200 0.0000 0.0000
0.0200 -0.0000 -0.0000
0.0200 0.0000 0.0000
0.0200 0.0000 0.0000
0.0200 0.0000 0.0000
0.0200 0.0000 0.0000
0.0200 0.0000 0.0000
0.0200 -0.0000 -0.0000
0.0200 0.0000 0.0000
0.0200 -0.0000 -0.0000
0.0200 0.0000 0.0000
0.0200 0.0000 0.0000
0.0200 -0.0000 -0.0000
0.0200 0.0000 0.0000
0.0200 -0.0000 -0.0000
0.0200 -0.0000 -0.0000
0.0200 -0.0000 -0.0000
0.0200 0.0000 0.0000
0.0200 0.0000 0.0000
0.0200 -0.0000 -0.0000
0.0200 -0.0000 -0.0000
0.0200 0.0000 0.0000
0.0200 0.0000 0.0000
0.0200 0.0000 0.0000
0.0200 -0.0000 -0.0000
0.0200 0.0000 0.0000
0.0200 0.0000 0.0000
0.0200 0.0000 0.0000
0.0200 0.0000 0.0000
0.0200 0.0000 0.0000
0.0200 0.0000 0.0000
0.0200 0.0000 0.0000
0.0200 -0.0000 -0.0000
0.0200 0.0000 0.0000
0.0200 0.0000 0.0000
0.0200 -0.0000 -0.0000
0.0200 -0.0000 -0.0000
0.0200 0.0000 0.0000
0.0200 -0.0000 -0.0000
0.0200 0.0000 0.0000
0.0200 0.0000 0.0000
0.0200 0.0000 0.0000
0.0200 0.0000 0.0000
0.0200 -0.0000 -0.0000
0.0200 -0.0000 -0.0000
0.0200 0.0000 0.0000
0.0200 0.0000 0.0000
0.0200 0.0000 0.0000
0.0200 0.0000 0.0000
0.0200 0.0000 0.0000
0.0200 0.0000 0.0000
0.0200 0.0000 0.0000
0.0200 0.0000 0.0000
0.0200 0.0000 0.0000
0.0200 -0.0000 -0.0000
0.0200 0.0000 0.0000
0.0200 0.0000 0.0000
0.0200 0.0000 0.0000
0.0200 0.0000 0.0000
0.0200 0.0000 0.0000
0.0200 0.0000 0.0000
0.0200 -0.0000 -0.0000
0.0200 0.0000 0.0000
0.0200 0.0000 0.0000
0.0200 -0.0000 -0.0000
0.0200 -0.0000 -0.0000
0.0200 -0.0000 -0.0000
0.0200 -0.0000 -0.0000
0.0200 0.0000 0.0000
0.0200 0.0000 0.0000
0.0200 0.0000 0.0000
0.0200 0.0000 0.0000
0.0200 -0.0000 -0.0000
0.0200 -0.0000 -0.0000
0.0200 -0.0000 -0.0000
0.0200 -0.0000 -0.0000
0.0200 0.0000 0.0000
0.0200 0.0000 0.0000
0.0200 0.0000 0.0000
0.0200 -0.0000 -0.0000
0.0200 -0.0000 -0.0000
0.0200 0.0000 0.0000
0.0200 0.0000 0.0000
0.0200 0.0000 0.0000
0.0200 0.0000 0.0000
0.0200 -0.0000 -0.0000
0.0200 -0.0000 -0.0000
0.0200 -0.0000 -0.0000
0.0200 -0.0000 -0.0000
0.0200 -0.0000 -0.0000
0.0200 -0.0000 -0.0000
0.0200 -0.0000 -0.0000
0.0200 0.0000 0.0000
0.0200 -0.0000 -0.0000
0.0200 -0.0000 -0.0000
0.0200 0.0000 0.0000
0.0200 0.0000 0.0000
0.0200 -0.0000 -0.0000
0.0200 0.0000 0.0000
0.0200 0.0000 0.0000
0.0200 -0.0000 -0.0000
0.0200 -0.0000 -0.0000
0.0200 0.0000 0.0000
0.0200 -0.0000 -0.0000
0.0200 0.0000 0.0000
0.0200 -0.0000 -0.0000
0.0200 0.0000 0.0000
0.0200 0.0000 0.0000
0.0200 -0.0000 -0.0000
0.0200 -0.0000 -0.0000
0.0200 0.0000 0.0000
0.0200 -0.0000 -0.0000
0.0200 0.0000 0.0000
0.0200 0.0000 0.0000
0.0200 0.0000 0.0000
0.0200 -0.0000 -0.0000
0.0200 -0.0000 -0.0000
0.0200 -0.0000 -0.0000
0.0200 0.0000 0.0000
0.0200 0.0000 0.0000
0.0200 -0.0000 -0.0000
0.0200 0.0000 0.0000
0.0200 0.0000 0.0000
0.0200 -0.0000 -0.0000
0.0200 -0.0000 -0.0000
0.0200 0.0000 0.0000
0.0200 0.0000 0.0000
0.0200 0.0000 0.0000
0.0200 0.0000 0.0000
0.0200 0.0000 0.0000
0.0200 -0.0000 -0.0000
0.0200 -0.0000 -0.0000
0.0200 0.0000 0.0000
0.0200 -0.0000 -0.0000
0.0200 0.0000 0.0000
0.0200 -0.0000 -0.0000
0.0200 0.0000 0.0000
0.0200 -0.0000 -0.0000
0.0200 -0.0000 -0.0000
0.0200 -0.0000 -0.0000
0.0200 0.0000 0.0000
0.0200 -0.0000 -0.0000
0.0200 -0.0000 -0.0000
0.0200 -0.0000 -0.0000
0.0200 0.0000 0.0000
0.0200 0.0000 0.0000
0.0200 -0.0000 -0.0000
0.0200 0.0000 0.0000
0.0200 0.0000 0.0000
0.0200 0.0000 0.0000
0.0200 0.0000 0.0000
0.0200 0.0000 0.0000
0.0200 -0.0000 -0.0000
0.0200 -0.0000 -0.0000
0.0200 0.0000 0.0000
0.0200 0.0000 0.0000
0.0200 -0.0000 -0.0000
0.0200 0.0000 0.0000
0.0200 0.0000 0.0000
0.0200 -0.0000 -0.0000
0.0200 0.0000 0.0000
0.0200 0.0000 0.0000
0.0200 0.0000 0.0000
0.0200 -0.0000 -0.0000
0.0200 0.0000 0.0000
0.0200 0.0000 0.0000
0.0200 -0.0000 -0.0000
0.0200 -0.0000 -0.0000
0.0200 0.0000 0.0000
0.0200 0.0000 0.0000
0.0200 0.0000 0.0000
0.0200 0.0000 0.0000
0.0200 0.0000 0.0000
0.0200 0.0000 0.0000
0.0200 0.0000 0.0000
0.0200 -0.0000 -0.0000
0.0200 0.0000 0.0000
0.0200 0.0000 0.0000
0.0200 -0.0000 -0.0000
0.0200 0.0000 0.0000
0.0200 0.0000 0.0000
0.0200 -0.0000 -0.0000
0.0200 -0.0000 -0.0000
0.0200 0.0000 0.0000
0.0200 0.0000 0.0000
0.0200 0.0000 0.0000
0.0200 -0.0000 -0.0000
0.0200 -0.0000 -0.0000
0.0200 0.0000 0.0000
0.0200 0.0000 0.0000
0.0200 0.0000 0.0000
0.0200 0.0000 0.0000
0.0200 -0.0000 -0.0000
0.0200 0.0000 0.0000
0.0200 -0.0000 -0.0000
0.0200 0.0000 0.0000
0.0200 0.0000 0.0000
0.0200 0.0000 0.0000
0.0200 0.0000 0.0000
0.0200 -0.0000 -0.0000
0.0200 -0.0000 -0.0000
0.0200 0.0000 0.0000
0.0200 -0.0000 -0.0000
0.0200 0.0000 0.0000
0.0200 -0.0000 -0.0000
0.0200 0.0000 0.0000
0.0200 0.0000 0.0000
0.0200 -0.0000 -0.0000
0.0200 0.0000 0.0000
0.0200 0.0000 0.0000
0.0200 0.0000 0.0000
0.0200 0.0000 0.0000
0.0200 0.0000 0.0000
0.0200 0.0000 0.0000
0.0200 -0.0000 -0.0000
0.0200 0.0000 0.0000
0.0200 0.0000 0.0000
0.0200 0.0000 0.0000
0.0200 0.0000 0.0000
0.0200 -0.0000 -0.0000
0.0200 0.0000 0.0000
0.0200 -0.0000 -0.0000
0.0200 -0.0000 -0.0000
0.0200 0.0000 0.0000
0.0200 0.0000 0.0000
0.0200 -0.0000 -0.0000
0.0200 0.0000 0.0000
0.0200 -0.0000 -0.0000
0.0200 -0.0000 -0.0000
0.0200 0.0000 0.0000
0.0200 0.0000 0.0000
0.0200 0.0000 0.0000
0.0200 -0.0000 -0.0000
0.0200 -0.0000 -0.0000
0.0200 -0.0000 -0.0000
0.0200 -0.0000 -0.0000
0.0200 0.0000 0.0000
0.0200 0.0000 0.0000
0.0200 -0.0000 -0.0000
0.0200 0.0000 0.0000
0.0200 -0.0000 -0.0000
0.0200 -0.0000 -0.0000
0.0200 0.0000 0.0000
0.0200 0.0000 0.0000
0.0200 0.0000 0.0000
0.0200 0.0000 0.0000
0.0200 -0.0000 -0.0000
0.0200 0.0000 0.0000
0.0200 0.0000 0.0000
0.0200 0.0000 0.0000
0.0200 0.0000 0.0000
0.0200 0.0000 0.0000
0.0200 0.0000 0.0000
0.0200 0.0000 0.0000
0.0200 0.0000 0.0000
0.0200 0.0000 0.0000
0.0200 -0.0000 -0.0000
0.0200 0.0000 0.0000
0.0200 0.0000 0.0000
0.0200 0.0000 0.0000
0.0200 0.0000 0.0000
0.0200 -0.0000 -0.0000
0.0200 0.0000 0.0000
0.0200 0.0000 0.0000
0.0200 -0.0000 -0.0000
0.0200 -0.0000 -0.0000
0.0200 -0.0000 -0.0000
0.0200 -0.0000 -0.0000
0.0200 0.0000 0.0000
0.0200 0.0000 0.0000
0.0200 -0.0000 -0.0000
0.0200 0.0000 0.0000
0.0200 0.0000 0.0000
0.0200 -0.0000 -0.0000
0.0200 0.0000 0.0000
0.0200 0.0000 0.0000
0.0200 0.0000 0.0000
0.0200 0.0000 0.0000
0.0200 0.0000 0.0000
0.0200 0.0000 0.0000
0.0200 -0.0000 -0.0000
0.0200 0.0000 0.0000
0.0200 0.0000 0.0000
0.0200 -0.0000 -0.0000
0.0200 -0.0000 -0.0000
0.0200 -0.0000 -0.0000
0.0200 0.0000 0.0000
0.0200 0.0000 0.0000
0.0200 0.0000 0.0000
0.0200 -0.0000 -0.0000
0.0200 0.0000 0.0000
0.0200 -0.0000 -0.0000
0.0200 0.0000 0.0000
0.0200 -0.0000 -0.0000
0.0200 0.0000 0.0000
0.0200 -0.0000 -0.0000
0.0200 -0.0000 -0.0000
0.0200 -0.0000 -0.0000
0.0200 -0.0000 -0.0000
0.0200 -0.0000 -0.0000
0.0200 0.0000 0.0000
0.0200 -0.0000 -0.0000
0.0200 0.0000 0.0000
0.0200 0.0000 0.0000
0.0200 -0.0000 -0.0000
0.0200 -0.0000 -0.0000
0.0200 -0.0000 -0.0000
0.0200 -0.0000 -0.0000
0.0200 0.0000 0.0000
0.0200 0.0000 0.0000
0.0200 0.0000 0.0000
0.0200 0.0000 0.0000
0.0200 -0.0000 -0.0000
0.0200 0.0000 0.0000
0.0200 -0.0000 -0.0000
0.0200 0.0000 0.0000
0.0200 0.0000 0.0000
0.0200 -0.0000 -0.0000
0.0200 -0.0000 -0.0000
0.0200 -0.0000 -0.0000
0.0200 0.0000 0.0000
0.0200 -0.0000 -0.0000
0.0200 0.0000 0.0000
0.0200 -0.0000 -0.0000
0.0200 0.0000 0.0000
0.0200 0.0000 0.0000
0.0200 -0.0000 -0.0000
0.0200 0.0000 0.0000
0.0200 0.0000 0.0000
0.0200 0.0000 0.0000
0.0200 0.0000 0.0000
0.0200 0.0000 0.0000
0.0200 -0.0000 -0.0000
0.0200 0.0000 0.0000
0.0200 -0.0000 -0.0000
0.0200 -0.0000 -0.0000
0.0200 0.0000 0.0000
0.0200 -0.0000 -0.0000
0.0200 -0.0000 -0.0000
0.0200 -0.0000 -0.0000
0.0200 0.0000 0.0000
0.0200 -0.0000 -0.0000
0.0200 -0.0000 -0.0000
0.0200 0.0000 0.0000
0.0200 -0.0000 -0.0000
0.0200 0.0000 0.0000
0.0200 -0.0000 -0.0000
0.0200 -0.0000 -0.0000
0.0200 -0.0000 -0.0000
0.0200 0.0000 0.0000
0.0200 -0.0000 -0.0000
0.0200 -0.0000 -0.0000
0.0200 0.0000 0.0000
0.0200 -0.0000 -0.0000
0.0200 -0.0000 -0.0000
0.0200 -0.0000 -0.0000
0.0200 -0.0000 -0.0000
0.0200 -0.0000 -0.0000
0.0200 -0.0000 -0.0000
0.0200 0.0000 0.0000
0.0200 -0.0000 -0.0000
0.0200 0.0000 0.0000
0.0200 -0.0000 -0.0000
0.0200 -0.0000 -0.0000
0.0200 -0.0000 -0.0000
0.0200 -0.0000 -0.0000
0.0200 -0.0000 -0.0000
0.0200 -0.0000 -0.0000
0.0200 0.0000 0.0000
0.0200 0.0000 0.0000
0.0200 0.0000 0.0000
0.0200 0.0000 0.0000
0.0200 0.0000 0.0000
0.0200 0.0000 0.0000
0.0200 -0.0000 -0.0000
0.0200 0.0000 0.0000
0.0200 0.0000 0.0000
0.0200 0.0000 0.0000
0.0200 0.0000 0.0000
0.0200 -0.0000 -0.0000
0.0200 -0.0000 -0.0000
0.0200 -0.0000 -0.0000
0.0200 -0.0000 -0.0000
0.0200 -0.0000 -0.0000
0.0200 0.0000 0.0000
0.0200 0.0000 0.0000
0.0200 -0.0000 -0.0000
0.0200 -0.0000 -0.0000
0.0200 0.0000 0.0000
0.0200 -0.0000 -0.0000
0.0200 -0.0000 -0.0000
0.0200 -0.0000 -0.0000
0.0200 -0.0000 -0.0000
0.0200 0.0000 0.0000
0.0200 -0.0000 -0.0000
0.0200 -0.0000 -0.0000
0.0200 -0.0000 -0.0000
0.0200 0.0000 0.0000
0.0200 -0.0000 -0.0000
0.0200 0.0000 0.0000
0.0200 0.0000 0.0000
0.0200 -0.0000 -0.0000
0.0200 -0.0000 -0.0000
0.0200 0.0000 0.0000
0.0200 0.0000 0.0000
0.0200 -0.0000 -0.0000
0.0200 0.0000 0.0000
0.0200 0.0000 0.0000
0.0200 -0.0000 -0.0000
0.0200 0.0000 0.0000
0.0200 0.0000 0.0000
0.0200 0.0000 0.0000
0.0200 -0.0000 -0.0000
0.0200 0.0000 0.0000